   0.47902E+00   0.98930E-05   0.52941E-05
   0.95805E+00   0.13624E-04   0.72908E-05
   0.14371E+01   0.18603E-04   0.99553E-05
   0.19161E+01   0.25186E-04   0.13478E-04
   0.23951E+01   0.33809E-04   0.18092E-04
   0.28741E+01   0.44998E-04   0.24080E-04
   0.33532E+01   0.32820E-03   0.18839E-03
   0.38322E+01   0.11965E-02   0.69324E-03
   0.43112E+01   0.37457E-02   0.21772E-02
   0.47902E+01   0.97320E-02   0.56633E-02
   0.52693E+01   0.21295E-01   0.12398E-01
   0.57483E+01   0.41566E-01   0.24205E-01
   0.62273E+01   0.67778E-01   0.39473E-01
   0.67063E+01   0.76633E-01   0.44593E-01
   0.71854E+01   0.60005E-01   0.34563E-01
   0.76644E+01   0.54576E-01   0.29699E-01
   0.81434E+01   0.93208E-01   0.47726E-01
   0.86224E+01   0.17098E+00   0.86598E-01
   0.91015E+01   0.38380E+00   0.19005E+00
   0.95805E+01   0.36832E+00   0.18023E+00
   0.10060E+02   0.32067E-01   0.15753E-01
   0.10539E+02   0.13071E-01   0.57020E-02
   0.11018E+02   0.26753E-01   0.10993E-01
   0.11497E+02   0.57316E-01   0.23174E-01
   0.11976E+02   0.10741E+00   0.43105E-01
   0.12455E+02   0.16522E+00   0.66101E-01
   0.12934E+02   0.18820E+00   0.75307E-01
   0.13413E+02   0.15074E+00   0.60574E-01
   0.13892E+02   0.91386E-01   0.37169E-01
   0.14371E+02   0.49136E-01   0.20550E-01
   0.14850E+02   0.26504E-01   0.11711E-01
   0.15329E+02   0.15896E-01   0.76374E-02
   0.15808E+02   0.12110E-01   0.62656E-02
   0.16287E+02   0.11469E-01   0.61323E-02
   0.16766E+02   0.11944E-01   0.64282E-02
   0.17245E+02   0.12910E-01   0.68993E-02
   0.17724E+02   0.13946E-01   0.73719E-02
   0.18203E+02   0.15023E-01   0.78291E-02
   0.18682E+02   0.16183E-01   0.82820E-02
   0.19161E+02   0.17479E-01   0.87479E-02
   0.19640E+02   0.19169E-01   0.93077E-02
   0.20119E+02   0.21118E-01   0.99256E-02
   0.20598E+02   0.23511E-01   0.10660E-01
   0.21077E+02   0.26433E-01   0.11537E-01
   0.21556E+02   0.29960E-01   0.12575E-01
   0.22035E+02   0.34149E-01   0.13785E-01
   0.22514E+02   0.39035E-01   0.15166E-01
   0.22993E+02   0.44601E-01   0.16703E-01
   0.23472E+02   0.50731E-01   0.18355E-01
   0.23951E+02   0.57147E-01   0.20038E-01
   0.24430E+02   0.63366E-01   0.21616E-01
   0.24909E+02   0.68705E-01   0.22899E-01
   0.25388E+02   0.72370E-01   0.23667E-01
   0.25867E+02   0.73617E-01   0.23717E-01
   0.26346E+02   0.71953E-01   0.22918E-01
   0.26825E+02   0.67299E-01   0.21258E-01
   0.27304E+02   0.60050E-01   0.18861E-01
   0.27783E+02   0.51000E-01   0.15965E-01
   0.28262E+02   0.41159E-01   0.12868E-01
   0.28741E+02   0.31547E-01   0.98724E-02
   0.29221E+02   0.22954E-01   0.72072E-02
   0.29700E+02   0.15863E-01   0.50109E-02
   0.30179E+02   0.10424E-01   0.33249E-02
   0.30658E+02   0.65289E-02   0.21131E-02
   0.31137E+02   0.39012E-02   0.12894E-02
   0.31616E+02   0.22542E-02   0.76821E-03
   0.32095E+02   0.12835E-02   0.50503E-03
   0.32574E+02   0.77934E-03   0.51484E-03
   0.33053E+02   0.61336E-03   0.87287E-03
   0.33532E+02   0.68387E-03   0.18279E-02
   0.34011E+02   0.13445E-02   0.40910E-02
   0.34490E+02   0.27270E-02   0.85702E-02
   0.34969E+02   0.52508E-02   0.16657E-01
   0.35448E+02   0.94458E-02   0.30016E-01
   0.35927E+02   0.15732E-01   0.49839E-01
   0.36406E+02   0.23885E-01   0.75316E-01
   0.36885E+02   0.32532E-01   0.10203E+00
   0.37364E+02   0.39132E-01   0.12207E+00
   0.37843E+02   0.41099E-01   0.12755E+00
   0.38322E+02   0.37444E-01   0.11572E+00
   0.38801E+02   0.29613E-01   0.91262E-01
   0.39280E+02   0.20515E-01   0.63107E-01
   0.39759E+02   0.12685E-01   0.38914E-01
   0.40238E+02   0.21492E-01   0.50746E-01
   0.40717E+02   0.20819E+00   0.37694E+00
   0.41196E+02   0.42568E-02   0.99547E-02
   0.41675E+02   0.71089E-02   0.14311E-01
   0.42154E+02   0.31838E-01   0.73032E-01
   0.42633E+02   0.16333E+00   0.40543E+00
   0.43112E+02   0.94633E-01   0.21920E+00
   0.43591E+02   0.54395E-01   0.11263E+00
   0.44070E+02   0.25088E-01   0.45249E-01
   0.44549E+02   0.14698E-01   0.26489E-01
   0.45028E+02   0.69716E-02   0.12605E-01
   0.45507E+02   0.27204E-02   0.49512E-02
   0.45986E+02   0.90190E-03   0.16554E-02
   0.46465E+02   0.26091E-03   0.48263E-03
   0.46944E+02   0.62192E-04   0.11622E-03
   0.47423E+02   0.00000E+00   0.00000E+00
   0.47902E+02   0.00000E+00   0.00000E+00
